+ 0.5 0 1 tcp 40 ------- 0 0.0 1.0 0 0
- 0.5 0 1 tcp 40 ------- 0 0.0 1.0 0 0
r 0.50516 0 1 tcp 40 ------- 0 0.0 1.0 0 0
+ 0.50516 1 0 ack 40 ------- 0 1.0 0.0 0 1
- 0.50516 1 0 ack 40 ------- 0 1.0 0.0 0 1
r 0.51032 1 0 ack 40 ------- 0 1.0 0.0 0 1
+ 0.51032 0 1 tcp 40 ------- 0 0.0 1.0 1 2
- 0.51032 0 1 tcp 40 ------- 0 0.0 1.0 1 2
+ 0.51032 0 1 tcp 576 ------- 0 0.0 1.0 1 3
- 0.51048 0 1 tcp 576 ------- 0 0.0 1.0 1 3
r 0.51548 0 1 tcp 40 ------- 0 0.0 1.0 1 2
r 0.517784 0 1 tcp 576 ------- 0 0.0 1.0 1 3
+ 0.517784 1 0 ack 40 ------- 0 1.0 0.0 1 4
- 0.517784 1 0 ack 40 ------- 0 1.0 0.0 1 4
r 0.522944 1 0 ack 40 ------- 0 1.0 0.0 1 4
+ 0.522944 0 1 tcp 504 ------- 0 0.0 1.0 537 5
- 0.522944 0 1 tcp 504 ------- 0 0.0 1.0 537 5
r 0.52996 0 1 tcp 504 ------- 0 0.0 1.0 537 5
v 0.52996000000000021 eval {set sim_annotation {_o41 received data "my mesage"}}
+ 0.6 1 0 ack 40 ------- 0 1.0 0.0 1 6
- 0.6 1 0 ack 40 ------- 0 1.0 0.0 1 6
r 0.60516 1 0 ack 40 ------- 0 1.0 0.0 1 6
